MODEL 1
REMARK VINA RESULT:    -8.415      0.000      0.000
REMARK INTER + INTRA:         -12.164
REMARK INTER:                 -11.613
REMARK INTRA:                  -0.551
REMARK UNBOUND:                -0.551
REMARK 991   NORMALIZED FREE ENERGY : -10.318 KCAL/MOL
REMARK 992 INTER-LIGAND FREE ENERGY : -10.318 KCAL/MOL
REMARK 993 INTRA-LIGAND FREE ENERGY :   0.078 KCAL/MOL
ROOT
ATOM      1  C   UNL     1      17.010  23.088  43.817  0.00  0.00     -0.40 A 
ATOM      2  C   UNL     1      17.115  22.385  45.015  0.00  0.00     -0.53 A 
ATOM      3  C   UNL     1      17.277  21.015  45.008  0.00  0.00     -0.40 A 
ATOM      4  C   UNL     1      17.335  20.323  43.816  0.00  0.00     -0.38 A 
ATOM      5  C   UNL     1      17.071  22.393  42.605  0.00  0.00     -0.33 A 
ATOM      6  C   UNL     1      17.235  21.001  42.612  0.00  0.00     -0.37 A 
ENDROOT
BRANCH   1   7
ATOM      7  O   UNL     1      16.818  24.562  43.884  0.00  0.00     -0.32 OA
BRANCH   7   8
ATOM      8  C   UNL     1      17.848  25.569  43.701  0.00  0.00     -0.37 C 
ATOM      9  C   UNL     1      19.130  24.873  43.245  0.00  0.00     -0.66 C 
ATOM     10  C   UNL     1      17.452  26.626  42.645  0.00  0.00     -0.60 C 
BRANCH   8  11
ATOM     11  C   UNL     1      18.121  26.223  45.025  0.00  0.00     -0.28 C 
ATOM     12  O   UNL     1      17.722  25.671  46.078  0.00  0.00     -0.28 OA
BRANCH  11  13
ATOM     13  O   UNL     1      18.768  27.301  45.038  0.00  0.00     -0.20 OA
ATOM     14  H   UNL     1      18.923  27.764  44.238  0.00  0.00      0.00 HD
ENDBRANCH  11  13
ENDBRANCH   8  11
ENDBRANCH   7   8
ENDBRANCH   1   7
BRANCH   4  15
ATOM     15  C   UNL     1      17.485  18.900  43.838  0.00  0.00     -0.46 C 
BRANCH  15  16
ATOM     16  C   UNL     1      17.615  18.269  42.438  0.00  0.00     -0.35 C 
ATOM     17  O   UNL     1      16.696  17.595  41.975  0.00  0.00     -0.40 OA
ATOM     18  N   UNL     1      18.834  18.242  41.914  0.00  0.00     -0.25 N 
ATOM     19  H   UNL     1      19.563  18.622  42.455  0.00  0.00      0.00 HD
BRANCH  18  20
ATOM     20  C   UNL     1      19.172  17.729  40.678  0.00  0.00     -0.43 A 
ATOM     21  C   UNL     1      18.798  18.398  39.501  0.00  0.00     -0.40 A 
ATOM     22  C   UNL     1      18.954  17.774  38.273  0.00  0.00     -0.39 A 
ATOM     23  C   UNL     1      19.479  16.490  38.218  0.00  0.00     -0.29 A 
ATOM     24  C   UNL     1      19.699  16.449  40.604  0.00  0.00     -0.32 A 
ATOM     25  C   UNL     1      19.852  15.833  39.390  0.00  0.00     -0.52 A 
ATOM     26  C   UNL     1      18.565  18.485  37.015  0.00  0.00     -0.34 C 
ATOM     27  C   UNL     1      20.430  14.452  39.335  0.00  0.00     -0.79 C 
ENDBRANCH  18  20
ENDBRANCH  15  16
ENDBRANCH   4  15
TORSDOF 7
ENDMDL
MODEL 2
REMARK VINA RESULT:    -8.036      0.699      1.928
REMARK INTER + INTRA:         -11.641
REMARK INTER:                 -11.105
REMARK INTRA:                  -0.536
REMARK UNBOUND:                -0.551
REMARK 991   NORMALIZED FREE ENERGY : -10.318 KCAL/MOL
REMARK 992 INTER-LIGAND FREE ENERGY : -10.318 KCAL/MOL
REMARK 993 INTRA-LIGAND FREE ENERGY :   0.078 KCAL/MOL
ROOT
ATOM      1  C   UNL     1      16.706  23.477  43.542  0.00  0.00     -0.40 A 
ATOM      2  C   UNL     1      16.996  22.892  44.772  0.00  0.00     -0.53 A 
ATOM      3  C   UNL     1      17.286  21.546  44.853  0.00  0.00     -0.40 A 
ATOM      4  C   UNL     1      17.290  20.762  43.718  0.00  0.00     -0.38 A 
ATOM      5  C   UNL     1      16.710  22.689  42.388  0.00  0.00     -0.33 A 
ATOM      6  C   UNL     1      17.006  21.322  42.483  0.00  0.00     -0.37 A 
ENDROOT
BRANCH   1   7
ATOM      7  O   UNL     1      16.381  24.930  43.517  0.00  0.00     -0.32 OA
BRANCH   7   8
ATOM      8  C   UNL     1      17.310  26.009  43.231  0.00  0.00     -0.37 C 
ATOM      9  C   UNL     1      18.020  25.701  41.913  0.00  0.00     -0.66 C 
ATOM     10  C   UNL     1      16.598  27.376  43.105  0.00  0.00     -0.60 C 
BRANCH   8  11
ATOM     11  C   UNL     1      18.345  26.052  44.317  0.00  0.00     -0.28 C 
ATOM     12  O   UNL     1      19.557  25.933  44.017  0.00  0.00     -0.28 OA
BRANCH  11  13
ATOM     13  O   UNL     1      17.964  26.232  45.502  0.00  0.00     -0.20 OA
ATOM     14  H   UNL     1      18.512  26.695  46.105  0.00  0.00      0.00 HD
ENDBRANCH  11  13
ENDBRANCH   8  11
ENDBRANCH   7   8
ENDBRANCH   1   7
BRANCH   4  15
ATOM     15  C   UNL     1      17.576  19.364  43.832  0.00  0.00     -0.46 C 
BRANCH  15  16
ATOM     16  C   UNL     1      17.507  18.606  42.493  0.00  0.00     -0.35 C 
ATOM     17  O   UNL     1      16.504  17.958  42.199  0.00  0.00     -0.40 OA
ATOM     18  N   UNL     1      18.654  18.449  41.843  0.00  0.00     -0.25 N 
ATOM     19  H   UNL     1      19.461  18.825  42.263  0.00  0.00      0.00 HD
BRANCH  18  20
ATOM     20  C   UNL     1      18.817  17.808  40.632  0.00  0.00     -0.43 A 
ATOM     21  C   UNL     1      19.533  16.603  40.553  0.00  0.00     -0.40 A 
ATOM     22  C   UNL     1      19.872  16.081  39.315  0.00  0.00     -0.39 A 
ATOM     23  C   UNL     1      19.499  16.757  38.160  0.00  0.00     -0.29 A 
ATOM     24  C   UNL     1      18.449  18.467  39.469  0.00  0.00     -0.32 A 
ATOM     25  C   UNL     1      18.785  17.951  38.246  0.00  0.00     -0.52 A 
ATOM     26  C   UNL     1      20.628  14.793  39.224  0.00  0.00     -0.34 C 
ATOM     27  C   UNL     1      18.370  18.678  37.003  0.00  0.00     -0.79 C 
ENDBRANCH  18  20
ENDBRANCH  15  16
ENDBRANCH   4  15
TORSDOF 7
ENDMDL
MODEL 3
REMARK VINA RESULT:    -8.007      1.893      2.480
REMARK INTER + INTRA:         -11.601
REMARK INTER:                 -10.767
REMARK INTRA:                  -0.834
REMARK UNBOUND:                -0.551
REMARK 991   NORMALIZED FREE ENERGY : -10.318 KCAL/MOL
REMARK 992 INTER-LIGAND FREE ENERGY : -10.318 KCAL/MOL
REMARK 993 INTRA-LIGAND FREE ENERGY :   0.078 KCAL/MOL
ROOT
ATOM      1  C   UNL     1      15.407  22.401  43.874  0.00  0.00     -0.40 A 
ATOM      2  C   UNL     1      16.692  22.168  44.359  0.00  0.00     -0.53 A 
ATOM      3  C   UNL     1      17.218  20.893  44.353  0.00  0.00     -0.40 A 
ATOM      4  C   UNL     1      16.481  19.833  43.868  0.00  0.00     -0.38 A 
ATOM      5  C   UNL     1      14.654  21.332  43.379  0.00  0.00     -0.33 A 
ATOM      6  C   UNL     1      15.201  20.041  43.379  0.00  0.00     -0.37 A 
ENDROOT
BRANCH   1   7
ATOM      7  O   UNL     1      14.882  23.793  43.923  0.00  0.00     -0.32 OA
BRANCH   7   8
ATOM      8  C   UNL     1      15.102  24.826  42.926  0.00  0.00     -0.37 C 
ATOM      9  C   UNL     1      16.013  25.895  43.529  0.00  0.00     -0.66 C 
ATOM     10  C   UNL     1      15.765  24.272  41.644  0.00  0.00     -0.60 C 
BRANCH   8  11
ATOM     11  C   UNL     1      13.784  25.469  42.602  0.00  0.00     -0.28 C 
ATOM     12  O   UNL     1      13.232  25.222  41.504  0.00  0.00     -0.28 OA
BRANCH  11  13
ATOM     13  O   UNL     1      13.257  26.222  43.461  0.00  0.00     -0.20 OA
ATOM     14  H   UNL     1      13.623  26.278  44.322  0.00  0.00      0.00 HD
ENDBRANCH  11  13
ENDBRANCH   8  11
ENDBRANCH   7   8
ENDBRANCH   1   7
BRANCH   4  15
ATOM     15  C   UNL     1      17.044  18.518  43.890  0.00  0.00     -0.46 C 
BRANCH  15  16
ATOM     16  C   UNL     1      17.319  17.938  42.490  0.00  0.00     -0.35 C 
ATOM     17  O   UNL     1      16.600  17.049  42.035  0.00  0.00     -0.40 OA
ATOM     18  N   UNL     1      18.499  18.223  41.953  0.00  0.00     -0.25 N 
ATOM     19  H   UNL     1      19.111  18.779  42.488  0.00  0.00      0.00 HD
BRANCH  18  20
ATOM     20  C   UNL     1      18.946  17.811  40.714  0.00  0.00     -0.43 A 
ATOM     21  C   UNL     1      18.508  18.456  39.546  0.00  0.00     -0.40 A 
ATOM     22  C   UNL     1      18.792  17.906  38.307  0.00  0.00     -0.39 A 
ATOM     23  C   UNL     1      19.509  16.719  38.230  0.00  0.00     -0.29 A 
ATOM     24  C   UNL     1      19.665  16.630  40.619  0.00  0.00     -0.32 A 
ATOM     25  C   UNL     1      19.945  16.087  39.393  0.00  0.00     -0.52 A 
ATOM     26  C   UNL     1      18.334  18.592  37.058  0.00  0.00     -0.34 C 
ATOM     27  C   UNL     1      20.729  14.812  39.316  0.00  0.00     -0.79 C 
ENDBRANCH  18  20
ENDBRANCH  15  16
ENDBRANCH   4  15
TORSDOF 7
ENDMDL
MODEL 4
REMARK VINA RESULT:    -7.999      1.384      2.559
REMARK INTER + INTRA:         -11.590
REMARK INTER:                 -10.866
REMARK INTRA:                  -0.724
REMARK UNBOUND:                -0.551
REMARK 991   NORMALIZED FREE ENERGY : -10.318 KCAL/MOL
REMARK 992 INTER-LIGAND FREE ENERGY : -10.318 KCAL/MOL
REMARK 993 INTRA-LIGAND FREE ENERGY :   0.078 KCAL/MOL
ROOT
ATOM      1  C   UNL     1      17.618  22.847  43.935  0.00  0.00     -0.40 A 
ATOM      2  C   UNL     1      17.473  22.066  42.791  0.00  0.00     -0.53 A 
ATOM      3  C   UNL     1      16.823  20.852  42.854  0.00  0.00     -0.40 A 
ATOM      4  C   UNL     1      16.310  20.393  44.049  0.00  0.00     -0.38 A 
ATOM      5  C   UNL     1      17.098  22.390  45.150  0.00  0.00     -0.33 A 
ATOM      6  C   UNL     1      16.440  21.154  45.200  0.00  0.00     -0.37 A 
ENDROOT
BRANCH   1   7
ATOM      7  O   UNL     1      18.345  24.141  43.813  0.00  0.00     -0.32 OA
BRANCH   7   8
ATOM      8  C   UNL     1      17.741  25.460  43.765  0.00  0.00     -0.37 C 
ATOM      9  C   UNL     1      18.329  26.219  42.576  0.00  0.00     -0.66 C 
ATOM     10  C   UNL     1      16.205  25.396  43.605  0.00  0.00     -0.60 C 
BRANCH   8  11
ATOM     11  C   UNL     1      18.110  26.203  45.017  0.00  0.00     -0.28 C 
ATOM     12  O   UNL     1      17.760  25.744  46.131  0.00  0.00     -0.28 OA
BRANCH  11  13
ATOM     13  O   UNL     1      18.787  27.257  44.911  0.00  0.00     -0.20 OA
ATOM     14  H   UNL     1      18.450  28.066  45.247  0.00  0.00      0.00 HD
ENDBRANCH  11  13
ENDBRANCH   8  11
ENDBRANCH   7   8
ENDBRANCH   1   7
BRANCH   4  15
ATOM     15  C   UNL     1      15.656  19.121  44.090  0.00  0.00     -0.46 C 
BRANCH  15  16
ATOM     16  C   UNL     1      16.145  18.137  43.010  0.00  0.00     -0.35 C 
ATOM     17  O   UNL     1      15.334  17.542  42.302  0.00  0.00     -0.40 OA
ATOM     18  N   UNL     1      17.414  17.757  43.088  0.00  0.00     -0.25 N 
ATOM     19  H   UNL     1      17.948  18.127  43.828  0.00  0.00      0.00 HD
BRANCH  18  20
ATOM     20  C   UNL     1      18.054  16.890  42.225  0.00  0.00     -0.43 A 
ATOM     21  C   UNL     1      18.362  15.580  42.627  0.00  0.00     -0.40 A 
ATOM     22  C   UNL     1      19.185  14.792  41.840  0.00  0.00     -0.39 A 
ATOM     23  C   UNL     1      19.701  15.306  40.657  0.00  0.00     -0.29 A 
ATOM     24  C   UNL     1      18.573  17.385  41.039  0.00  0.00     -0.32 A 
ATOM     25  C   UNL     1      19.388  16.605  40.262  0.00  0.00     -0.52 A 
ATOM     26  C   UNL     1      19.511  13.393  42.259  0.00  0.00     -0.34 C 
ATOM     27  C   UNL     1      19.932  17.161  38.981  0.00  0.00     -0.79 C 
ENDBRANCH  18  20
ENDBRANCH  15  16
ENDBRANCH   4  15
TORSDOF 7
ENDMDL
MODEL 5
REMARK VINA RESULT:    -7.875      2.653      8.744
REMARK INTER + INTRA:         -11.419
REMARK INTER:                 -10.764
REMARK INTRA:                  -0.655
REMARK UNBOUND:                -0.551
REMARK 991   NORMALIZED FREE ENERGY : -10.318 KCAL/MOL
REMARK 992 INTER-LIGAND FREE ENERGY : -10.318 KCAL/MOL
REMARK 993 INTRA-LIGAND FREE ENERGY :   0.078 KCAL/MOL
ROOT
ATOM      1  C   UNL     1      19.155  16.427  41.795  0.00  0.00     -0.40 A 
ATOM      2  C   UNL     1      18.336  16.122  42.879  0.00  0.00     -0.53 A 
ATOM      3  C   UNL     1      17.467  17.067  43.383  0.00  0.00     -0.40 A 
ATOM      4  C   UNL     1      17.399  18.325  42.823  0.00  0.00     -0.38 A 
ATOM      5  C   UNL     1      19.089  17.700  41.220  0.00  0.00     -0.33 A 
ATOM      6  C   UNL     1      18.202  18.651  41.742  0.00  0.00     -0.37 A 
ENDROOT
BRANCH   1   7
ATOM      7  O   UNL     1      20.088  15.375  41.304  0.00  0.00     -0.32 OA
BRANCH   7   8
ATOM      8  C   UNL     1      19.923  14.580  40.100  0.00  0.00     -0.37 C 
ATOM      9  C   UNL     1      20.690  13.270  40.276  0.00  0.00     -0.66 C 
ATOM     10  C   UNL     1      18.440  14.254  39.811  0.00  0.00     -0.60 C 
BRANCH   8  11
ATOM     11  C   UNL     1      20.534  15.324  38.946  0.00  0.00     -0.28 C 
ATOM     12  O   UNL     1      19.813  16.077  38.249  0.00  0.00     -0.28 OA
BRANCH  11  13
ATOM     13  O   UNL     1      21.765  15.187  38.729  0.00  0.00     -0.20 OA
ATOM     14  H   UNL     1      22.209  15.784  38.160  0.00  0.00      0.00 HD
ENDBRANCH  11  13
ENDBRANCH   8  11
ENDBRANCH   7   8
ENDBRANCH   1   7
BRANCH   4  15
ATOM     15  C   UNL     1      16.502  19.292  43.377  0.00  0.00     -0.46 C 
BRANCH  15  16
ATOM     16  C   UNL     1      17.124  20.692  43.545  0.00  0.00     -0.35 C 
ATOM     17  O   UNL     1      17.921  20.910  44.456  0.00  0.00     -0.40 OA
ATOM     18  N   UNL     1      16.548  21.679  42.870  0.00  0.00     -0.25 N 
ATOM     19  H   UNL     1      15.768  21.447  42.317  0.00  0.00      0.00 HD
BRANCH  18  20
ATOM     20  C   UNL     1      16.945  23.001  42.874  0.00  0.00     -0.43 A 
ATOM     21  C   UNL     1      16.008  24.027  43.076  0.00  0.00     -0.40 A 
ATOM     22  C   UNL     1      16.374  25.347  42.868  0.00  0.00     -0.39 A 
ATOM     23  C   UNL     1      17.668  25.644  42.460  0.00  0.00     -0.29 A 
ATOM     24  C   UNL     1      18.234  23.316  42.472  0.00  0.00     -0.32 A 
ATOM     25  C   UNL     1      18.595  24.621  42.266  0.00  0.00     -0.52 A 
ATOM     26  C   UNL     1      15.382  26.445  43.088  0.00  0.00     -0.34 C 
ATOM     27  C   UNL     1      19.995  24.937  41.838  0.00  0.00     -0.79 C 
ENDBRANCH  18  20
ENDBRANCH  15  16
ENDBRANCH   4  15
TORSDOF 7
ENDMDL
MODEL 6
REMARK VINA RESULT:    -7.645      2.638      8.795
REMARK INTER + INTRA:         -11.102
REMARK INTER:                 -10.433
REMARK INTRA:                  -0.668
REMARK UNBOUND:                -0.551
REMARK 991   NORMALIZED FREE ENERGY : -10.318 KCAL/MOL
REMARK 992 INTER-LIGAND FREE ENERGY : -10.318 KCAL/MOL
REMARK 993 INTRA-LIGAND FREE ENERGY :   0.078 KCAL/MOL
ROOT
ATOM      1  C   UNL     1      19.143  16.547  41.790  0.00  0.00     -0.40 A 
ATOM      2  C   UNL     1      18.969  17.811  41.231  0.00  0.00     -0.53 A 
ATOM      3  C   UNL     1      17.986  18.654  41.706  0.00  0.00     -0.40 A 
ATOM      4  C   UNL     1      17.162  18.257  42.738  0.00  0.00     -0.38 A 
ATOM      5  C   UNL     1      18.313  16.139  42.839  0.00  0.00     -0.33 A 
ATOM      6  C   UNL     1      17.317  17.006  43.312  0.00  0.00     -0.37 A 
ENDROOT
BRANCH   1   7
ATOM      7  O   UNL     1      20.206  15.672  41.226  0.00  0.00     -0.32 OA
BRANCH   7   8
ATOM      8  C   UNL     1      20.075  14.802  40.071  0.00  0.00     -0.37 C 
ATOM      9  C   UNL     1      20.914  13.547  40.312  0.00  0.00     -0.66 C 
ATOM     10  C   UNL     1      18.609  14.380  39.819  0.00  0.00     -0.60 C 
BRANCH   8  11
ATOM     11  C   UNL     1      20.633  15.510  38.870  0.00  0.00     -0.28 C 
ATOM     12  O   UNL     1      19.884  16.249  38.188  0.00  0.00     -0.28 OA
BRANCH  11  13
ATOM     13  O   UNL     1      21.852  15.358  38.598  0.00  0.00     -0.20 OA
ATOM     14  H   UNL     1      22.422  16.102  38.573  0.00  0.00      0.00 HD
ENDBRANCH  11  13
ENDBRANCH   8  11
ENDBRANCH   7   8
ENDBRANCH   1   7
BRANCH   4  15
ATOM     15  C   UNL     1      16.138  19.144  43.200  0.00  0.00     -0.46 C 
BRANCH  15  16
ATOM     16  C   UNL     1      16.636  20.576  43.474  0.00  0.00     -0.35 C 
ATOM     17  O   UNL     1      16.944  20.917  44.616  0.00  0.00     -0.40 OA
ATOM     18  N   UNL     1      16.433  21.467  42.512  0.00  0.00     -0.25 N 
ATOM     19  H   UNL     1      15.979  21.150  41.697  0.00  0.00      0.00 HD
BRANCH  18  20
ATOM     20  C   UNL     1      16.800  22.797  42.548  0.00  0.00     -0.43 A 
ATOM     21  C   UNL     1      18.156  23.162  42.572  0.00  0.00     -0.40 A 
ATOM     22  C   UNL     1      18.512  24.478  42.821  0.00  0.00     -0.39 A 
ATOM     23  C   UNL     1      17.523  25.426  43.046  0.00  0.00     -0.29 A 
ATOM     24  C   UNL     1      15.825  23.757  42.769  0.00  0.00     -0.32 A 
ATOM     25  C   UNL     1      16.179  25.057  43.016  0.00  0.00     -0.52 A 
ATOM     26  C   UNL     1      19.955  24.875  42.841  0.00  0.00     -0.34 C 
ATOM     27  C   UNL     1      15.106  26.078  43.246  0.00  0.00     -0.79 C 
ENDBRANCH  18  20
ENDBRANCH  15  16
ENDBRANCH   4  15
TORSDOF 7
ENDMDL
MODEL 7
REMARK VINA RESULT:    -7.627      1.679      2.797
REMARK INTER + INTRA:         -11.076
REMARK INTER:                 -10.128
REMARK INTRA:                  -0.948
REMARK UNBOUND:                -0.551
REMARK 991   NORMALIZED FREE ENERGY : -10.318 KCAL/MOL
REMARK 992 INTER-LIGAND FREE ENERGY : -10.318 KCAL/MOL
REMARK 993 INTRA-LIGAND FREE ENERGY :   0.078 KCAL/MOL
ROOT
ATOM      1  C   UNL     1      17.074  23.440  43.446  0.00  0.00     -0.40 A 
ATOM      2  C   UNL     1      17.267  22.837  44.687  0.00  0.00     -0.53 A 
ATOM      3  C   UNL     1      16.866  21.534  44.899  0.00  0.00     -0.40 A 
ATOM      4  C   UNL     1      16.270  20.812  43.887  0.00  0.00     -0.38 A 
ATOM      5  C   UNL     1      16.472  22.712  42.415  0.00  0.00     -0.33 A 
ATOM      6  C   UNL     1      16.070  21.389  42.643  0.00  0.00     -0.37 A 
ENDROOT
BRANCH   1   7
ATOM      7  O   UNL     1      17.508  24.854  43.279  0.00  0.00     -0.32 OA
BRANCH   7   8
ATOM      8  C   UNL     1      18.795  25.301  42.779  0.00  0.00     -0.37 C 
ATOM      9  C   UNL     1      19.489  26.105  43.877  0.00  0.00     -0.66 C 
ATOM     10  C   UNL     1      19.708  24.121  42.373  0.00  0.00     -0.60 C 
BRANCH   8  11
ATOM     11  C   UNL     1      18.565  26.215  41.609  0.00  0.00     -0.28 C 
ATOM     12  O   UNL     1      19.520  26.891  41.160  0.00  0.00     -0.28 OA
BRANCH  11  13
ATOM     13  O   UNL     1      17.417  26.255  41.097  0.00  0.00     -0.20 OA
ATOM     14  H   UNL     1      16.974  25.459  40.878  0.00  0.00      0.00 HD
ENDBRANCH  11  13
ENDBRANCH   8  11
ENDBRANCH   7   8
ENDBRANCH   1   7
BRANCH   4  15
ATOM     15  C   UNL     1      15.848  19.468  44.139  0.00  0.00     -0.46 C 
BRANCH  15  16
ATOM     16  C   UNL     1      16.251  18.473  43.033  0.00  0.00     -0.35 C 
ATOM     17  O   UNL     1      15.388  17.847  42.419  0.00  0.00     -0.40 OA
ATOM     18  N   UNL     1      17.530  18.122  42.992  0.00  0.00     -0.25 N 
ATOM     19  H   UNL     1      18.125  18.519  43.669  0.00  0.00      0.00 HD
BRANCH  18  20
ATOM     20  C   UNL     1      18.103  17.253  42.086  0.00  0.00     -0.43 A 
ATOM     21  C   UNL     1      18.362  15.919  42.443  0.00  0.00     -0.40 A 
ATOM     22  C   UNL     1      19.123  15.117  41.608  0.00  0.00     -0.39 A 
ATOM     23  C   UNL     1      19.625  15.641  40.424  0.00  0.00     -0.29 A 
ATOM     24  C   UNL     1      18.607  17.757  40.898  0.00  0.00     -0.32 A 
ATOM     25  C   UNL     1      19.360  16.964  40.074  0.00  0.00     -0.52 A 
ATOM     26  C   UNL     1      19.397  13.694  41.979  0.00  0.00     -0.34 C 
ATOM     27  C   UNL     1      19.890  17.530  38.792  0.00  0.00     -0.79 C 
ENDBRANCH  18  20
ENDBRANCH  15  16
ENDBRANCH   4  15
TORSDOF 7
ENDMDL
MODEL 8
REMARK VINA RESULT:    -7.560      2.949      4.505
REMARK INTER + INTRA:         -10.984
REMARK INTER:                 -10.043
REMARK INTRA:                  -0.942
REMARK UNBOUND:                -0.551
REMARK 991   NORMALIZED FREE ENERGY : -10.318 KCAL/MOL
REMARK 992 INTER-LIGAND FREE ENERGY : -10.318 KCAL/MOL
REMARK 993 INTRA-LIGAND FREE ENERGY :   0.078 KCAL/MOL
ROOT
ATOM      1  C   UNL     1      16.565  24.472  42.448  0.00  0.00     -0.40 A 
ATOM      2  C   UNL     1      15.956  24.227  43.677  0.00  0.00     -0.53 A 
ATOM      3  C   UNL     1      14.975  23.264  43.789  0.00  0.00     -0.40 A 
ATOM      4  C   UNL     1      14.584  22.532  42.688  0.00  0.00     -0.38 A 
ATOM      5  C   UNL     1      16.174  23.732  41.328  0.00  0.00     -0.33 A 
ATOM      6  C   UNL     1      15.176  22.756  41.456  0.00  0.00     -0.37 A 
ENDROOT
BRANCH   1   7
ATOM      7  O   UNL     1      17.603  25.536  42.380  0.00  0.00     -0.32 OA
BRANCH   7   8
ATOM      8  C   UNL     1      19.039  25.338  42.464  0.00  0.00     -0.37 C 
ATOM      9  C   UNL     1      19.561  26.083  43.692  0.00  0.00     -0.66 C 
ATOM     10  C   UNL     1      19.417  23.844  42.590  0.00  0.00     -0.60 C 
BRANCH   8  11
ATOM     11  C   UNL     1      19.679  25.943  41.247  0.00  0.00     -0.28 C 
ATOM     12  O   UNL     1      20.395  26.964  41.373  0.00  0.00     -0.28 OA
BRANCH  11  13
ATOM     13  O   UNL     1      19.496  25.386  40.134  0.00  0.00     -0.20 OA
ATOM     14  H   UNL     1      20.209  25.294  39.534  0.00  0.00      0.00 HD
ENDBRANCH  11  13
ENDBRANCH   8  11
ENDBRANCH   7   8
ENDBRANCH   1   7
BRANCH   4  15
ATOM     15  C   UNL     1      13.551  21.551  42.829  0.00  0.00     -0.46 C 
BRANCH  15  16
ATOM     16  C   UNL     1      14.040  20.103  42.630  0.00  0.00     -0.35 C 
ATOM     17  O   UNL     1      13.390  19.320  41.939  0.00  0.00     -0.40 OA
ATOM     18  N   UNL     1      14.992  19.683  43.454  0.00  0.00     -0.25 N 
ATOM     19  H   UNL     1      15.313  20.322  44.130  0.00  0.00      0.00 HD
BRANCH  18  20
ATOM     20  C   UNL     1      15.572  18.431  43.448  0.00  0.00     -0.43 A 
ATOM     21  C   UNL     1      15.101  17.421  44.303  0.00  0.00     -0.40 A 
ATOM     22  C   UNL     1      15.819  16.244  44.442  0.00  0.00     -0.39 A 
ATOM     23  C   UNL     1      17.001  16.073  43.734  0.00  0.00     -0.29 A 
ATOM     24  C   UNL     1      16.752  18.241  42.744  0.00  0.00     -0.32 A 
ATOM     25  C   UNL     1      17.461  17.078  42.883  0.00  0.00     -0.52 A 
ATOM     26  C   UNL     1      15.318  15.162  45.346  0.00  0.00     -0.34 C 
ATOM     27  C   UNL     1      18.730  16.894  42.108  0.00  0.00     -0.79 C 
ENDBRANCH  18  20
ENDBRANCH  15  16
ENDBRANCH   4  15
TORSDOF 7
ENDMDL
MODEL 9
REMARK VINA RESULT:    -7.310      2.219      3.356
REMARK INTER + INTRA:         -10.638
REMARK INTER:                  -9.895
REMARK INTRA:                  -0.743
REMARK UNBOUND:                -0.551
REMARK 991   NORMALIZED FREE ENERGY : -10.318 KCAL/MOL
REMARK 992 INTER-LIGAND FREE ENERGY : -10.318 KCAL/MOL
REMARK 993 INTRA-LIGAND FREE ENERGY :   0.078 KCAL/MOL
ROOT
ATOM      1  C   UNL     1      16.489  20.960  43.280  0.00  0.00     -0.40 A 
ATOM      2  C   UNL     1      15.239  20.346  43.251  0.00  0.00     -0.53 A 
ATOM      3  C   UNL     1      15.119  18.996  43.507  0.00  0.00     -0.40 A 
ATOM      4  C   UNL     1      16.234  18.236  43.792  0.00  0.00     -0.38 A 
ATOM      5  C   UNL     1      17.624  20.195  43.570  0.00  0.00     -0.33 A 
ATOM      6  C   UNL     1      17.488  18.824  43.828  0.00  0.00     -0.37 A 
ENDROOT
BRANCH   1   7
ATOM      7  O   UNL     1      16.563  22.415  42.977  0.00  0.00     -0.32 OA
BRANCH   7   8
ATOM      8  C   UNL     1      16.962  23.462  43.901  0.00  0.00     -0.37 C 
ATOM      9  C   UNL     1      16.000  24.639  43.744  0.00  0.00     -0.66 C 
ATOM     10  C   UNL     1      16.933  22.988  45.372  0.00  0.00     -0.60 C 
BRANCH   8  11
ATOM     11  C   UNL     1      18.338  23.934  43.526  0.00  0.00     -0.28 C 
ATOM     12  O   UNL     1      18.783  24.993  44.029  0.00  0.00     -0.28 OA
BRANCH  11  13
ATOM     13  O   UNL     1      19.016  23.234  42.732  0.00  0.00     -0.20 OA
ATOM     14  H   UNL     1      18.593  22.591  42.196  0.00  0.00      0.00 HD
ENDBRANCH  11  13
ENDBRANCH   8  11
ENDBRANCH   7   8
ENDBRANCH   1   7
BRANCH   4  15
ATOM     15  C   UNL     1      16.083  16.834  44.036  0.00  0.00     -0.46 C 
BRANCH  15  16
ATOM     16  C   UNL     1      16.947  15.948  43.117  0.00  0.00     -0.35 C 
ATOM     17  O   UNL     1      18.017  15.496  43.521  0.00  0.00     -0.40 OA
ATOM     18  N   UNL     1      16.632  15.952  41.828  0.00  0.00     -0.25 N 
ATOM     19  H   UNL     1      15.877  16.519  41.553  0.00  0.00      0.00 HD
BRANCH  18  20
ATOM     20  C   UNL     1      17.269  15.231  40.837  0.00  0.00     -0.43 A 
ATOM     21  C   UNL     1      16.928  13.890  40.598  0.00  0.00     -0.40 A 
ATOM     22  C   UNL     1      17.711  13.119  39.755  0.00  0.00     -0.39 A 
ATOM     23  C   UNL     1      18.829  13.680  39.153  0.00  0.00     -0.29 A 
ATOM     24  C   UNL     1      18.386  15.777  40.224  0.00  0.00     -0.32 A 
ATOM     25  C   UNL     1      19.160  15.013  39.391  0.00  0.00     -0.52 A 
ATOM     26  C   UNL     1      17.348  11.691  39.491  0.00  0.00     -0.34 C 
ATOM     27  C   UNL     1      20.359  15.627  38.734  0.00  0.00     -0.79 C 
ENDBRANCH  18  20
ENDBRANCH  15  16
ENDBRANCH   4  15
TORSDOF 7
ENDMDL
