MODEL 1
REMARK VINA RESULT:    -0.458      0.000      0.000
REMARK INTER + INTRA:          -1.584
REMARK INTER:                  -0.632
REMARK INTRA:                  -0.952
REMARK UNBOUND:                -0.952
REMARK 991   NORMALIZED FREE ENERGY : -10.318 KCAL/MOL
REMARK 992 INTER-LIGAND FREE ENERGY : -10.318 KCAL/MOL
REMARK 993 INTRA-LIGAND FREE ENERGY :   0.078 KCAL/MOL
ROOT
ATOM      1  C   UNL     1      -0.288   1.537   7.560  0.00  0.00     -0.40 A 
ATOM      2  C   UNL     1      -1.606   1.272   7.924  0.00  0.00     -0.53 A 
ATOM      3  C   UNL     1      -2.636   2.040   7.424  0.00  0.00     -0.40 A 
ATOM      4  C   UNL     1      -2.376   3.081   6.557  0.00  0.00     -0.38 A 
ATOM      5  C   UNL     1      -0.017   2.589   6.680  0.00  0.00     -0.33 A 
ATOM      6  C   UNL     1      -1.073   3.362   6.178  0.00  0.00     -0.37 A 
ENDROOT
BRANCH   1   7
ATOM      7  O   UNL     1       0.786   0.688   8.145  0.00  0.00     -0.32 OA
BRANCH   7   8
ATOM      8  C   UNL     1       1.697   1.073   9.208  0.00  0.00     -0.37 C 
ATOM      9  C   UNL     1       0.981   2.064  10.125  0.00  0.00     -0.66 C 
ATOM     10  C   UNL     1       2.161  -0.138  10.049  0.00  0.00     -0.60 C 
BRANCH   8  11
ATOM     11  C   UNL     1       2.877   1.774   8.598  0.00  0.00     -0.28 C 
ATOM     12  O   UNL     1       3.216   2.900   9.034  0.00  0.00     -0.28 OA
BRANCH  11  13
ATOM     13  O   UNL     1       3.509   1.194   7.679  0.00  0.00     -0.20 OA
ATOM     14  H   UNL     1       3.074   0.973   6.878  0.00  0.00      0.00 HD
ENDBRANCH  11  13
ENDBRANCH   8  11
ENDBRANCH   7   8
ENDBRANCH   1   7
BRANCH   4  15
ATOM     15  C   UNL     1      -3.461   3.874   6.067  0.00  0.00     -0.46 C 
BRANCH  15  16
ATOM     16  C   UNL     1      -3.417   5.342   6.532  0.00  0.00     -0.35 C 
ATOM     17  O   UNL     1      -3.163   6.238   5.729  0.00  0.00     -0.40 OA
ATOM     18  N   UNL     1      -3.370   5.545   7.842  0.00  0.00     -0.25 N 
ATOM     19  H   UNL     1      -3.364   4.748   8.419  0.00  0.00      0.00 HD
BRANCH  18  20
ATOM     20  C   UNL     1      -3.329   6.774   8.470  0.00  0.00     -0.43 A 
ATOM     21  C   UNL     1      -2.105   7.326   8.880  0.00  0.00     -0.40 A 
ATOM     22  C   UNL     1      -2.091   8.449   9.691  0.00  0.00     -0.39 A 
ATOM     23  C   UNL     1      -3.291   9.020  10.093  0.00  0.00     -0.29 A 
ATOM     24  C   UNL     1      -4.518   7.360   8.877  0.00  0.00     -0.32 A 
ATOM     25  C   UNL     1      -4.503   8.469   9.679  0.00  0.00     -0.52 A 
ATOM     26  C   UNL     1      -0.790   9.047  10.125  0.00  0.00     -0.34 C 
ATOM     27  C   UNL     1      -5.801   9.088  10.101  0.00  0.00     -0.79 C 
ENDBRANCH  18  20
ENDBRANCH  15  16
ENDBRANCH   4  15
TORSDOF 7
ENDMDL
MODEL 2
REMARK VINA RESULT:    -0.421      2.782      4.452
REMARK INTER + INTRA:          -1.533
REMARK INTER:                  -0.514
REMARK INTRA:                  -1.018
REMARK UNBOUND:                -0.952
REMARK 991   NORMALIZED FREE ENERGY : -10.318 KCAL/MOL
REMARK 992 INTER-LIGAND FREE ENERGY : -10.318 KCAL/MOL
REMARK 993 INTRA-LIGAND FREE ENERGY :   0.078 KCAL/MOL
ROOT
ATOM      1  C   UNL     1       0.500   0.179   8.810  0.00  0.00     -0.40 A 
ATOM      2  C   UNL     1       1.078   0.631   9.994  0.00  0.00     -0.53 A 
ATOM      3  C   UNL     1       1.820   1.793  10.008  0.00  0.00     -0.40 A 
ATOM      4  C   UNL     1       2.001   2.523   8.852  0.00  0.00     -0.38 A 
ATOM      5  C   UNL     1       0.677   0.915   7.634  0.00  0.00     -0.33 A 
ATOM      6  C   UNL     1       1.434   2.095   7.663  0.00  0.00     -0.37 A 
ENDROOT
BRANCH   1   7
ATOM      7  O   UNL     1      -0.274  -1.091   8.848  0.00  0.00     -0.32 OA
BRANCH   7   8
ATOM      8  C   UNL     1      -1.716  -1.218   8.739  0.00  0.00     -0.37 C 
ATOM      9  C   UNL     1      -2.153  -2.467   9.504  0.00  0.00     -0.66 C 
ATOM     10  C   UNL     1      -2.458   0.007   9.320  0.00  0.00     -0.60 C 
BRANCH   8  11
ATOM     11  C   UNL     1      -2.073  -1.413   7.293  0.00  0.00     -0.28 C 
ATOM     12  O   UNL     1      -2.720  -0.522   6.693  0.00  0.00     -0.28 OA
BRANCH  11  13
ATOM     13  O   UNL     1      -1.686  -2.461   6.716  0.00  0.00     -0.20 OA
ATOM     14  H   UNL     1      -0.784  -2.714   6.759  0.00  0.00      0.00 HD
ENDBRANCH  11  13
ENDBRANCH   8  11
ENDBRANCH   7   8
ENDBRANCH   1   7
BRANCH   4  15
ATOM     15  C   UNL     1       2.791   3.715   8.891  0.00  0.00     -0.46 C 
BRANCH  15  16
ATOM     16  C   UNL     1       2.035   4.975   8.427  0.00  0.00     -0.35 C 
ATOM     17  O   UNL     1       2.490   5.672   7.521  0.00  0.00     -0.40 OA
ATOM     18  N   UNL     1       1.070   5.413   9.226  0.00  0.00     -0.25 N 
ATOM     19  H   UNL     1       0.909   4.905  10.054  0.00  0.00      0.00 HD
BRANCH  18  20
ATOM     20  C   UNL     1       0.270   6.515   9.001  0.00  0.00     -0.43 A 
ATOM     21  C   UNL     1       0.586   7.756   9.576  0.00  0.00     -0.40 A 
ATOM     22  C   UNL     1      -0.327   8.796   9.520  0.00  0.00     -0.39 A 
ATOM     23  C   UNL     1      -1.552   8.601   8.895  0.00  0.00     -0.29 A 
ATOM     24  C   UNL     1      -0.955   6.339   8.376  0.00  0.00     -0.32 A 
ATOM     25  C   UNL     1      -1.858   7.367   8.322  0.00  0.00     -0.52 A 
ATOM     26  C   UNL     1       0.007  10.123  10.125  0.00  0.00     -0.34 C 
ATOM     27  C   UNL     1      -3.173   7.155   7.635  0.00  0.00     -0.79 C 
ENDBRANCH  18  20
ENDBRANCH  15  16
ENDBRANCH   4  15
TORSDOF 7
ENDMDL
MODEL 3
REMARK VINA RESULT:    -0.411      2.505      4.093
REMARK INTER + INTRA:          -1.519
REMARK INTER:                  -0.536
REMARK INTRA:                  -0.983
REMARK UNBOUND:                -0.952
REMARK 991   NORMALIZED FREE ENERGY : -10.318 KCAL/MOL
REMARK 992 INTER-LIGAND FREE ENERGY : -10.318 KCAL/MOL
REMARK 993 INTRA-LIGAND FREE ENERGY :   0.078 KCAL/MOL
ROOT
ATOM      1  C   UNL     1       0.532   2.245   7.526  0.00  0.00     -0.40 A 
ATOM      2  C   UNL     1       1.012   3.489   7.125  0.00  0.00     -0.53 A 
ATOM      3  C   UNL     1       0.958   4.567   7.984  0.00  0.00     -0.40 A 
ATOM      4  C   UNL     1       0.427   4.428   9.249  0.00  0.00     -0.38 A 
ATOM      5  C   UNL     1      -0.007   2.096   8.808  0.00  0.00     -0.33 A 
ATOM      6  C   UNL     1      -0.056   3.199   9.671  0.00  0.00     -0.37 A 
ENDROOT
BRANCH   1   7
ATOM      7  O   UNL     1       0.597   1.121   6.552  0.00  0.00     -0.32 OA
BRANCH   7   8
ATOM      8  C   UNL     1      -0.528   0.530   5.850  0.00  0.00     -0.37 C 
ATOM      9  C   UNL     1      -0.026  -0.044   4.526  0.00  0.00     -0.66 C 
ATOM     10  C   UNL     1      -1.196  -0.602   6.663  0.00  0.00     -0.60 C 
BRANCH   8  11
ATOM     11  C   UNL     1      -1.522   1.613   5.539  0.00  0.00     -0.28 C 
ATOM     12  O   UNL     1      -1.310   2.383   4.573  0.00  0.00     -0.28 OA
BRANCH  11  13
ATOM     13  O   UNL     1      -2.557   1.697   6.248  0.00  0.00     -0.20 OA
ATOM     14  H   UNL     1      -3.193   1.009   6.232  0.00  0.00      0.00 HD
ENDBRANCH  11  13
ENDBRANCH   8  11
ENDBRANCH   7   8
ENDBRANCH   1   7
BRANCH   4  15
ATOM     15  C   UNL     1       0.366   5.566  10.114  0.00  0.00     -0.46 C 
BRANCH  15  16
ATOM     16  C   UNL     1      -0.376   6.771   9.502  0.00  0.00     -0.35 C 
ATOM     17  O   UNL     1       0.201   7.849   9.367  0.00  0.00     -0.40 OA
ATOM     18  N   UNL     1      -1.696   6.670   9.416  0.00  0.00     -0.25 N 
ATOM     19  H   UNL     1      -2.104   5.838   9.750  0.00  0.00      0.00 HD
BRANCH  18  20
ATOM     20  C   UNL     1      -2.549   7.624   8.901  0.00  0.00     -0.43 A 
ATOM     21  C   UNL     1      -3.353   8.399   9.753  0.00  0.00     -0.40 A 
ATOM     22  C   UNL     1      -4.352   9.199   9.222  0.00  0.00     -0.39 A 
ATOM     23  C   UNL     1      -4.551   9.227   7.848  0.00  0.00     -0.29 A 
ATOM     24  C   UNL     1      -2.758   7.668   7.531  0.00  0.00     -0.32 A 
ATOM     25  C   UNL     1      -3.746   8.459   7.007  0.00  0.00     -0.52 A 
ATOM     26  C   UNL     1      -5.206  10.032  10.125  0.00  0.00     -0.34 C 
ATOM     27  C   UNL     1      -3.949   8.494   5.523  0.00  0.00     -0.79 C 
ENDBRANCH  18  20
ENDBRANCH  15  16
ENDBRANCH   4  15
TORSDOF 7
ENDMDL
MODEL 4
REMARK VINA RESULT:    -0.408      2.970      4.247
REMARK INTER + INTRA:          -1.516
REMARK INTER:                  -0.539
REMARK INTRA:                  -0.977
REMARK UNBOUND:                -0.952
REMARK 991   NORMALIZED FREE ENERGY : -10.318 KCAL/MOL
REMARK 992 INTER-LIGAND FREE ENERGY : -10.318 KCAL/MOL
REMARK 993 INTRA-LIGAND FREE ENERGY :   0.078 KCAL/MOL
ROOT
ATOM      1  C   UNL     1       4.296   3.733   7.184  0.00  0.00     -0.40 A 
ATOM      2  C   UNL     1       3.253   3.743   6.262  0.00  0.00     -0.53 A 
ATOM      3  C   UNL     1       2.610   4.922   5.949  0.00  0.00     -0.40 A 
ATOM      4  C   UNL     1       2.990   6.106   6.546  0.00  0.00     -0.38 A 
ATOM      5  C   UNL     1       4.688   4.930   7.791  0.00  0.00     -0.33 A 
ATOM      6  C   UNL     1       4.027   6.121   7.465  0.00  0.00     -0.37 A 
ENDROOT
BRANCH   1   7
ATOM      7  O   UNL     1       4.941   2.428   7.498  0.00  0.00     -0.32 OA
BRANCH   7   8
ATOM      8  C   UNL     1       4.730   1.636   8.696  0.00  0.00     -0.37 C 
ATOM      9  C   UNL     1       5.855   1.943   9.684  0.00  0.00     -0.66 C 
ATOM     10  C   UNL     1       3.375   1.946   9.373  0.00  0.00     -0.60 C 
BRANCH   8  11
ATOM     11  C   UNL     1       4.817   0.182   8.331  0.00  0.00     -0.28 C 
ATOM     12  O   UNL     1       4.467  -0.187   7.185  0.00  0.00     -0.28 OA
BRANCH  11  13
ATOM     13  O   UNL     1       5.266  -0.625   9.186  0.00  0.00     -0.20 OA
ATOM     14  H   UNL     1       6.175  -0.609   9.412  0.00  0.00      0.00 HD
ENDBRANCH  11  13
ENDBRANCH   8  11
ENDBRANCH   7   8
ENDBRANCH   1   7
BRANCH   4  15
ATOM     15  C   UNL     1       2.294   7.313   6.217  0.00  0.00     -0.46 C 
BRANCH  15  16
ATOM     16  C   UNL     1       0.811   7.308   6.635  0.00  0.00     -0.35 C 
ATOM     17  O   UNL     1      -0.070   7.461   5.791  0.00  0.00     -0.40 OA
ATOM     18  N   UNL     1       0.563   7.428   7.933  0.00  0.00     -0.25 N 
ATOM     19  H   UNL     1       1.340   7.514   8.532  0.00  0.00      0.00 HD
BRANCH  18  20
ATOM     20  C   UNL     1      -0.686   7.442   8.521  0.00  0.00     -0.43 A 
ATOM     21  C   UNL     1      -1.288   8.657   8.889  0.00  0.00     -0.40 A 
ATOM     22  C   UNL     1      -2.436   8.651   9.663  0.00  0.00     -0.39 A 
ATOM     23  C   UNL     1      -2.983   7.442  10.071  0.00  0.00     -0.29 A 
ATOM     24  C   UNL     1      -1.248   6.244   8.932  0.00  0.00     -0.32 A 
ATOM     25  C   UNL     1      -2.383   6.240   9.698  0.00  0.00     -0.52 A 
ATOM     26  C   UNL     1      -3.086   9.942  10.053  0.00  0.00     -0.34 C 
ATOM     27  C   UNL     1      -2.976   4.931  10.125  0.00  0.00     -0.79 C 
ENDBRANCH  18  20
ENDBRANCH  15  16
ENDBRANCH   4  15
TORSDOF 7
ENDMDL
MODEL 5
REMARK VINA RESULT:    -0.407      1.938      3.173
REMARK INTER + INTRA:          -1.514
REMARK INTER:                  -0.720
REMARK INTRA:                  -0.794
REMARK UNBOUND:                -0.952
REMARK 991   NORMALIZED FREE ENERGY : -10.318 KCAL/MOL
REMARK 992 INTER-LIGAND FREE ENERGY : -10.318 KCAL/MOL
REMARK 993 INTRA-LIGAND FREE ENERGY :   0.078 KCAL/MOL
ROOT
ATOM      1  C   UNL     1       2.022   2.444   8.601  0.00  0.00     -0.40 A 
ATOM      2  C   UNL     1       1.502   2.549   9.889  0.00  0.00     -0.53 A 
ATOM      3  C   UNL     1       0.191   2.928  10.083  0.00  0.00     -0.40 A 
ATOM      4  C   UNL     1      -0.623   3.210   9.006  0.00  0.00     -0.38 A 
ATOM      5  C   UNL     1       1.201   2.727   7.504  0.00  0.00     -0.33 A 
ATOM      6  C   UNL     1      -0.130   3.111   7.715  0.00  0.00     -0.37 A 
ENDROOT
BRANCH   1   7
ATOM      7  O   UNL     1       3.449   2.050   8.450  0.00  0.00     -0.32 OA
BRANCH   7   8
ATOM      8  C   UNL     1       3.939   0.730   8.096  0.00  0.00     -0.37 C 
ATOM      9  C   UNL     1       2.956  -0.312   8.629  0.00  0.00     -0.66 C 
ATOM     10  C   UNL     1       4.078   0.547   6.567  0.00  0.00     -0.60 C 
BRANCH   8  11
ATOM     11  C   UNL     1       5.261   0.510   8.775  0.00  0.00     -0.28 C 
ATOM     12  O   UNL     1       5.920   1.500   9.173  0.00  0.00     -0.28 OA
BRANCH  11  13
ATOM     13  O   UNL     1       5.658  -0.671   8.946  0.00  0.00     -0.20 OA
ATOM     14  H   UNL     1       6.415  -0.981   8.489  0.00  0.00      0.00 HD
ENDBRANCH  11  13
ENDBRANCH   8  11
ENDBRANCH   7   8
ENDBRANCH   1   7
BRANCH   4  15
ATOM     15  C   UNL     1      -1.975   3.619   9.236  0.00  0.00     -0.46 C 
BRANCH  15  16
ATOM     16  C   UNL     1      -2.240   5.101   8.908  0.00  0.00     -0.35 C 
ATOM     17  O   UNL     1      -2.815   5.411   7.866  0.00  0.00     -0.40 OA
ATOM     18  N   UNL     1      -1.575   5.994   9.631  0.00  0.00     -0.25 N 
ATOM     19  H   UNL     1      -0.963   5.646  10.319  0.00  0.00      0.00 HD
BRANCH  18  20
ATOM     20  C   UNL     1      -1.665   7.365   9.506  0.00  0.00     -0.43 A 
ATOM     21  C   UNL     1      -2.806   8.050   9.957  0.00  0.00     -0.40 A 
ATOM     22  C   UNL     1      -2.979   9.387   9.639  0.00  0.00     -0.39 A 
ATOM     23  C   UNL     1      -2.021  10.040   8.875  0.00  0.00     -0.29 A 
ATOM     24  C   UNL     1      -0.717   8.034   8.749  0.00  0.00     -0.32 A 
ATOM     25  C   UNL     1      -0.890   9.356   8.434  0.00  0.00     -0.52 A 
ATOM     26  C   UNL     1      -4.189  10.123  10.123  0.00  0.00     -0.34 C 
ATOM     27  C   UNL     1       0.153  10.059   7.619  0.00  0.00     -0.79 C 
ENDBRANCH  18  20
ENDBRANCH  15  16
ENDBRANCH   4  15
TORSDOF 7
ENDMDL
