MODEL 1
REMARK VINA RESULT:    -8.400      0.000      0.000
REMARK INTER + INTRA:         -12.206
REMARK INTER:                 -11.592
REMARK INTRA:                  -0.614
REMARK UNBOUND:                -0.614
REMARK 991   NORMALIZED FREE ENERGY : -10.318 KCAL/MOL
REMARK 992 INTER-LIGAND FREE ENERGY : -10.318 KCAL/MOL
REMARK 993 INTRA-LIGAND FREE ENERGY :   0.078 KCAL/MOL
ROOT
ATOM      1  C   UNL     1      16.971  23.064  43.777  0.00  0.00     -0.40 A 
ATOM      2  C   UNL     1      17.135  22.365  44.970  0.00  0.00     -0.53 A 
ATOM      3  C   UNL     1      17.243  20.990  44.963  0.00  0.00     -0.40 A 
ATOM      4  C   UNL     1      17.188  20.290  43.776  0.00  0.00     -0.38 A 
ATOM      5  C   UNL     1      16.917  22.361  42.569  0.00  0.00     -0.33 A 
ATOM      6  C   UNL     1      17.027  20.964  42.576  0.00  0.00     -0.37 A 
ENDROOT
BRANCH   1   7
ATOM      7  O   UNL     1      16.841  24.546  43.845  0.00  0.00     -0.32 OA
BRANCH   7   8
ATOM      8  C   UNL     1      17.916  25.508  43.677  0.00  0.00     -0.37 C 
ATOM      9  C   UNL     1      19.196  24.748  43.329  0.00  0.00     -0.66 C 
ATOM     10  C   UNL     1      17.620  26.526  42.552  0.00  0.00     -0.60 C 
BRANCH   8  11
ATOM     11  C   UNL     1      18.136  26.215  44.983  0.00  0.00     -0.28 C 
ATOM     12  O   UNL     1      17.766  25.667  46.049  0.00  0.00     -0.28 OA
BRANCH  11  13
ATOM     13  O   UNL     1      18.711  27.333  44.970  0.00  0.00     -0.20 OA
ATOM     14  H   UNL     1      19.557  27.420  44.574  0.00  0.00      0.00 HD
ENDBRANCH  11  13
ENDBRANCH   8  11
ENDBRANCH   7   8
ENDBRANCH   1   7
BRANCH   4  15
ATOM     15  C   UNL     1      17.283  18.862  43.798  0.00  0.00     -0.46 C 
BRANCH  15  16
ATOM     16  C   UNL     1      17.477  18.231  42.406  0.00  0.00     -0.35 C 
ATOM     17  O   UNL     1      16.609  17.500  41.931  0.00  0.00     -0.40 OA
ATOM     18  N   UNL     1      18.705  18.273  41.905  0.00  0.00     -0.25 N 
ATOM     19  H   UNL     1      19.400  18.700  42.457  0.00  0.00      0.00 HD
BRANCH  18  20
ATOM     20  C   UNL     1      19.097  17.774  40.679  0.00  0.00     -0.43 A 
ATOM     21  C   UNL     1      18.716  18.419  39.491  0.00  0.00     -0.40 A 
ATOM     22  C   UNL     1      18.931  17.799  38.270  0.00  0.00     -0.39 A 
ATOM     23  C   UNL     1      19.522  16.543  38.232  0.00  0.00     -0.29 A 
ATOM     24  C   UNL     1      19.690  16.522  40.623  0.00  0.00     -0.32 A 
ATOM     25  C   UNL     1      19.901  15.911  39.415  0.00  0.00     -0.52 A 
ATOM     26  C   UNL     1      18.534  18.484  37.000  0.00  0.00     -0.34 C 
ATOM     27  C   UNL     1      20.550  14.560  39.380  0.00  0.00     -0.79 C 
ENDBRANCH  18  20
ENDBRANCH  15  16
ENDBRANCH   4  15
TORSDOF 7
ENDMDL
MODEL 2
REMARK VINA RESULT:    -8.021      0.579      1.909
REMARK INTER + INTRA:         -11.683
REMARK INTER:                 -11.177
REMARK INTRA:                  -0.506
REMARK UNBOUND:                -0.614
REMARK 991   NORMALIZED FREE ENERGY : -10.318 KCAL/MOL
REMARK 992 INTER-LIGAND FREE ENERGY : -10.318 KCAL/MOL
REMARK 993 INTRA-LIGAND FREE ENERGY :   0.078 KCAL/MOL
ROOT
ATOM      1  C   UNL     1      16.560  23.293  43.746  0.00  0.00     -0.40 A 
ATOM      2  C   UNL     1      17.016  22.718  44.930  0.00  0.00     -0.53 A 
ATOM      3  C   UNL     1      17.365  21.384  44.968  0.00  0.00     -0.40 A 
ATOM      4  C   UNL     1      17.265  20.602  43.836  0.00  0.00     -0.38 A 
ATOM      5  C   UNL     1      16.458  22.506  42.595  0.00  0.00     -0.33 A 
ATOM      6  C   UNL     1      16.815  21.152  42.647  0.00  0.00     -0.37 A 
ENDROOT
BRANCH   1   7
ATOM      7  O   UNL     1      16.179  24.732  43.767  0.00  0.00     -0.32 OA
BRANCH   7   8
ATOM      8  C   UNL     1      17.042  25.850  43.432  0.00  0.00     -0.37 C 
ATOM      9  C   UNL     1      18.062  25.382  42.394  0.00  0.00     -0.66 C 
ATOM     10  C   UNL     1      16.253  27.046  42.851  0.00  0.00     -0.60 C 
BRANCH   8  11
ATOM     11  C   UNL     1      17.792  26.264  44.666  0.00  0.00     -0.28 C 
ATOM     12  O   UNL     1      18.865  26.902  44.548  0.00  0.00     -0.28 OA
BRANCH  11  13
ATOM     13  O   UNL     1      17.304  25.977  45.789  0.00  0.00     -0.20 OA
ATOM     14  H   UNL     1      16.509  25.483  45.841  0.00  0.00      0.00 HD
ENDBRANCH  11  13
ENDBRANCH   8  11
ENDBRANCH   7   8
ENDBRANCH   1   7
BRANCH   4  15
ATOM     15  C   UNL     1      17.616  19.217  43.908  0.00  0.00     -0.46 C 
BRANCH  15  16
ATOM     16  C   UNL     1      17.552  18.489  42.551  0.00  0.00     -0.35 C 
ATOM     17  O   UNL     1      16.542  17.866  42.230  0.00  0.00     -0.40 OA
ATOM     18  N   UNL     1      18.704  18.328  41.913  0.00  0.00     -0.25 N 
ATOM     19  H   UNL     1      19.512  18.680  42.351  0.00  0.00      0.00 HD
BRANCH  18  20
ATOM     20  C   UNL     1      18.872  17.712  40.689  0.00  0.00     -0.43 A 
ATOM     21  C   UNL     1      19.612  16.522  40.585  0.00  0.00     -0.40 A 
ATOM     22  C   UNL     1      19.952  16.029  39.336  0.00  0.00     -0.39 A 
ATOM     23  C   UNL     1      19.559  16.717  38.195  0.00  0.00     -0.29 A 
ATOM     24  C   UNL     1      18.483  18.383  39.540  0.00  0.00     -0.32 A 
ATOM     25  C   UNL     1      18.821  17.895  38.306  0.00  0.00     -0.52 A 
ATOM     26  C   UNL     1      20.733  14.758  39.218  0.00  0.00     -0.34 C 
ATOM     27  C   UNL     1      18.384  18.635  37.079  0.00  0.00     -0.79 C 
ENDBRANCH  18  20
ENDBRANCH  15  16
ENDBRANCH   4  15
TORSDOF 7
ENDMDL
MODEL 3
REMARK VINA RESULT:    -7.998      1.627      2.131
REMARK INTER + INTRA:         -11.652
REMARK INTER:                 -10.802
REMARK INTRA:                  -0.850
REMARK UNBOUND:                -0.614
REMARK 991   NORMALIZED FREE ENERGY : -10.318 KCAL/MOL
REMARK 992 INTER-LIGAND FREE ENERGY : -10.318 KCAL/MOL
REMARK 993 INTRA-LIGAND FREE ENERGY :   0.078 KCAL/MOL
ROOT
ATOM      1  C   UNL     1      15.695  22.592  44.013  0.00  0.00     -0.40 A 
ATOM      2  C   UNL     1      16.961  22.236  44.472  0.00  0.00     -0.53 A 
ATOM      3  C   UNL     1      17.374  20.921  44.427  0.00  0.00     -0.40 A 
ATOM      4  C   UNL     1      16.540  19.942  43.929  0.00  0.00     -0.38 A 
ATOM      5  C   UNL     1      14.845  21.605  43.506  0.00  0.00     -0.33 A 
ATOM      6  C   UNL     1      15.277  20.272  43.466  0.00  0.00     -0.37 A 
ENDROOT
BRANCH   1   7
ATOM      7  O   UNL     1      15.294  24.023  44.103  0.00  0.00     -0.32 OA
BRANCH   7   8
ATOM      8  C   UNL     1      15.677  25.079  43.183  0.00  0.00     -0.37 C 
ATOM      9  C   UNL     1      16.767  25.925  43.843  0.00  0.00     -0.66 C 
ATOM     10  C   UNL     1      16.219  24.523  41.847  0.00  0.00     -0.60 C 
BRANCH   8  11
ATOM     11  C   UNL     1      14.486  25.962  42.943  0.00  0.00     -0.28 C 
ATOM     12  O   UNL     1      14.497  26.758  41.974  0.00  0.00     -0.28 OA
BRANCH  11  13
ATOM     13  O   UNL     1      13.497  25.856  43.712  0.00  0.00     -0.20 OA
ATOM     14  H   UNL     1      13.083  25.023  43.831  0.00  0.00      0.00 HD
ENDBRANCH  11  13
ENDBRANCH   8  11
ENDBRANCH   7   8
ENDBRANCH   1   7
BRANCH   4  15
ATOM     15  C   UNL     1      16.987  18.583  43.911  0.00  0.00     -0.46 C 
BRANCH  15  16
ATOM     16  C   UNL     1      17.255  18.037  42.495  0.00  0.00     -0.35 C 
ATOM     17  O   UNL     1      16.495  17.208  41.997  0.00  0.00     -0.40 OA
ATOM     18  N   UNL     1      18.460  18.271  41.991  0.00  0.00     -0.25 N 
ATOM     19  H   UNL     1      19.093  18.771  42.555  0.00  0.00      0.00 HD
BRANCH  18  20
ATOM     20  C   UNL     1      18.907  17.877  40.745  0.00  0.00     -0.43 A 
ATOM     21  C   UNL     1      18.447  18.522  39.585  0.00  0.00     -0.40 A 
ATOM     22  C   UNL     1      18.733  17.987  38.340  0.00  0.00     -0.39 A 
ATOM     23  C   UNL     1      19.473  16.815  38.249  0.00  0.00     -0.29 A 
ATOM     24  C   UNL     1      19.648  16.711  40.636  0.00  0.00     -0.32 A 
ATOM     25  C   UNL     1      19.930  16.183  39.404  0.00  0.00     -0.52 A 
ATOM     26  C   UNL     1      18.253  18.673  37.100  0.00  0.00     -0.34 C 
ATOM     27  C   UNL     1      20.739  14.925  39.312  0.00  0.00     -0.79 C 
ENDBRANCH  18  20
ENDBRANCH  15  16
ENDBRANCH   4  15
TORSDOF 7
ENDMDL
MODEL 4
REMARK VINA RESULT:    -7.804      1.024      2.482
REMARK INTER + INTRA:         -11.384
REMARK INTER:                 -10.763
REMARK INTRA:                  -0.621
REMARK UNBOUND:                -0.614
REMARK 991   NORMALIZED FREE ENERGY : -10.318 KCAL/MOL
REMARK 992 INTER-LIGAND FREE ENERGY : -10.318 KCAL/MOL
REMARK 993 INTRA-LIGAND FREE ENERGY :   0.078 KCAL/MOL
ROOT
ATOM      1  C   UNL     1      16.704  23.388  43.524  0.00  0.00     -0.40 A 
ATOM      2  C   UNL     1      16.879  22.590  42.396  0.00  0.00     -0.53 A 
ATOM      3  C   UNL     1      17.190  21.253  42.530  0.00  0.00     -0.40 A 
ATOM      4  C   UNL     1      17.332  20.689  43.781  0.00  0.00     -0.38 A 
ATOM      5  C   UNL     1      16.844  22.823  44.795  0.00  0.00     -0.33 A 
ATOM      6  C   UNL     1      17.160  21.463  44.917  0.00  0.00     -0.37 A 
ENDROOT
BRANCH   1   7
ATOM      7  O   UNL     1      16.389  24.829  43.321  0.00  0.00     -0.32 OA
BRANCH   7   8
ATOM      8  C   UNL     1      17.320  25.935  43.451  0.00  0.00     -0.37 C 
ATOM      9  C   UNL     1      16.594  27.227  43.078  0.00  0.00     -0.66 C 
ATOM     10  C   UNL     1      17.871  26.071  44.889  0.00  0.00     -0.60 C 
BRANCH   8  11
ATOM     11  C   UNL     1      18.443  25.735  42.473  0.00  0.00     -0.28 C 
ATOM     12  O   UNL     1      19.536  25.274  42.878  0.00  0.00     -0.28 OA
BRANCH  11  13
ATOM     13  O   UNL     1      18.241  26.014  41.264  0.00  0.00     -0.20 OA
ATOM     14  H   UNL     1      18.930  25.906  40.637  0.00  0.00      0.00 HD
ENDBRANCH  11  13
ENDBRANCH   8  11
ENDBRANCH   7   8
ENDBRANCH   1   7
BRANCH   4  15
ATOM     15  C   UNL     1      17.672  19.304  43.891  0.00  0.00     -0.46 C 
BRANCH  15  16
ATOM     16  C   UNL     1      17.593  18.537  42.557  0.00  0.00     -0.35 C 
ATOM     17  O   UNL     1      16.582  17.900  42.267  0.00  0.00     -0.40 OA
ATOM     18  N   UNL     1      18.738  18.362  41.908  0.00  0.00     -0.25 N 
ATOM     19  H   UNL     1      19.550  18.730  42.326  0.00  0.00      0.00 HD
BRANCH  18  20
ATOM     20  C   UNL     1      18.893  17.711  40.701  0.00  0.00     -0.43 A 
ATOM     21  C   UNL     1      19.585  16.491  40.632  0.00  0.00     -0.40 A 
ATOM     22  C   UNL     1      19.918  15.956  39.398  0.00  0.00     -0.39 A 
ATOM     23  C   UNL     1      19.563  16.632  38.238  0.00  0.00     -0.29 A 
ATOM     24  C   UNL     1      18.542  18.370  39.533  0.00  0.00     -0.32 A 
ATOM     25  C   UNL     1      18.872  17.840  38.314  0.00  0.00     -0.52 A 
ATOM     26  C   UNL     1      20.649  14.653  39.317  0.00  0.00     -0.34 C 
ATOM     27  C   UNL     1      18.476  18.568  37.066  0.00  0.00     -0.79 C 
ENDBRANCH  18  20
ENDBRANCH  15  16
ENDBRANCH   4  15
TORSDOF 7
ENDMDL
MODEL 5
REMARK VINA RESULT:    -7.768      2.597      8.772
REMARK INTER + INTRA:         -11.334
REMARK INTER:                 -10.713
REMARK INTRA:                  -0.620
REMARK UNBOUND:                -0.614
REMARK 991   NORMALIZED FREE ENERGY : -10.318 KCAL/MOL
REMARK 992 INTER-LIGAND FREE ENERGY : -10.318 KCAL/MOL
REMARK 993 INTRA-LIGAND FREE ENERGY :   0.078 KCAL/MOL
ROOT
ATOM      1  C   UNL     1      19.149  16.397  41.862  0.00  0.00     -0.40 A 
ATOM      2  C   UNL     1      19.087  17.686  41.339  0.00  0.00     -0.53 A 
ATOM      3  C   UNL     1      18.202  18.607  41.858  0.00  0.00     -0.40 A 
ATOM      4  C   UNL     1      17.365  18.265  42.899  0.00  0.00     -0.38 A 
ATOM      5  C   UNL     1      18.306  16.043  42.920  0.00  0.00     -0.33 A 
ATOM      6  C   UNL     1      17.410  16.989  43.438  0.00  0.00     -0.37 A 
ENDROOT
BRANCH   1   7
ATOM      7  O   UNL     1      20.110  15.437  41.251  0.00  0.00     -0.32 OA
BRANCH   7   8
ATOM      8  C   UNL     1      19.896  14.668  40.039  0.00  0.00     -0.37 C 
ATOM      9  C   UNL     1      20.633  13.336  40.174  0.00  0.00     -0.66 C 
ATOM     10  C   UNL     1      18.399  14.386  39.780  0.00  0.00     -0.60 C 
BRANCH   8  11
ATOM     11  C   UNL     1      20.499  15.416  38.884  0.00  0.00     -0.28 C 
ATOM     12  O   UNL     1      19.776  16.181  38.203  0.00  0.00     -0.28 OA
BRANCH  11  13
ATOM     13  O   UNL     1      21.725  15.269  38.649  0.00  0.00     -0.20 OA
ATOM     14  H   UNL     1      22.350  15.375  39.340  0.00  0.00      0.00 HD
ENDBRANCH  11  13
ENDBRANCH   8  11
ENDBRANCH   7   8
ENDBRANCH   1   7
BRANCH   4  15
ATOM     15  C   UNL     1      16.444  19.234  43.407  0.00  0.00     -0.46 C 
BRANCH  15  16
ATOM     16  C   UNL     1      17.025  20.658  43.492  0.00  0.00     -0.35 C 
ATOM     17  O   UNL     1      17.687  20.999  44.472  0.00  0.00     -0.40 OA
ATOM     18  N   UNL     1      16.540  21.547  42.634  0.00  0.00     -0.25 N 
ATOM     19  H   UNL     1      15.845  21.234  42.011  0.00  0.00      0.00 HD
BRANCH  18  20
ATOM     20  C   UNL     1      16.921  22.870  42.536  0.00  0.00     -0.43 A 
ATOM     21  C   UNL     1      18.273  23.213  42.375  0.00  0.00     -0.40 A 
ATOM     22  C   UNL     1      18.668  24.536  42.490  0.00  0.00     -0.39 A 
ATOM     23  C   UNL     1      17.720  25.513  42.765  0.00  0.00     -0.29 A 
ATOM     24  C   UNL     1      15.988  23.859  42.806  0.00  0.00     -0.32 A 
ATOM     25  C   UNL     1      16.379  25.166  42.920  0.00  0.00     -0.52 A 
ATOM     26  C   UNL     1      20.106  24.909  42.311  0.00  0.00     -0.34 C 
ATOM     27  C   UNL     1      15.351  26.218  43.206  0.00  0.00     -0.79 C 
ENDBRANCH  18  20
ENDBRANCH  15  16
ENDBRANCH   4  15
TORSDOF 7
ENDMDL
MODEL 6
REMARK VINA RESULT:    -7.618      2.767      8.696
REMARK INTER + INTRA:         -11.127
REMARK INTER:                 -10.618
REMARK INTRA:                  -0.509
REMARK UNBOUND:                -0.614
REMARK 991   NORMALIZED FREE ENERGY : -10.318 KCAL/MOL
REMARK 992 INTER-LIGAND FREE ENERGY : -10.318 KCAL/MOL
REMARK 993 INTRA-LIGAND FREE ENERGY :   0.078 KCAL/MOL
ROOT
ATOM      1  C   UNL     1      19.032  16.890  41.843  0.00  0.00     -0.40 A 
ATOM      2  C   UNL     1      18.324  16.464  42.965  0.00  0.00     -0.53 A 
ATOM      3  C   UNL     1      17.334  17.256  43.507  0.00  0.00     -0.40 A 
ATOM      4  C   UNL     1      17.031  18.480  42.947  0.00  0.00     -0.38 A 
ATOM      5  C   UNL     1      18.729  18.129  41.269  0.00  0.00     -0.33 A 
ATOM      6  C   UNL     1      17.720  18.924  41.830  0.00  0.00     -0.37 A 
ENDROOT
BRANCH   1   7
ATOM      7  O   UNL     1      20.103  16.004  41.312  0.00  0.00     -0.32 OA
BRANCH   7   8
ATOM      8  C   UNL     1      19.928  14.930  40.351  0.00  0.00     -0.37 C 
ATOM      9  C   UNL     1      18.477  14.942  39.872  0.00  0.00     -0.66 C 
ATOM     10  C   UNL     1      20.858  15.083  39.126  0.00  0.00     -0.60 C 
BRANCH   8  11
ATOM     11  C   UNL     1      20.178  13.621  41.043  0.00  0.00     -0.28 C 
ATOM     12  O   UNL     1      20.385  12.592  40.356  0.00  0.00     -0.28 OA
BRANCH  11  13
ATOM     13  O   UNL     1      20.197  13.602  42.300  0.00  0.00     -0.20 OA
ATOM     14  H   UNL     1      19.958  14.368  42.784  0.00  0.00      0.00 HD
ENDBRANCH  11  13
ENDBRANCH   8  11
ENDBRANCH   7   8
ENDBRANCH   1   7
BRANCH   4  15
ATOM     15  C   UNL     1      16.011  19.290  43.540  0.00  0.00     -0.46 C 
BRANCH  15  16
ATOM     16  C   UNL     1      16.183  20.798  43.273  0.00  0.00     -0.35 C 
ATOM     17  O   UNL     1      15.462  21.367  42.454  0.00  0.00     -0.40 OA
ATOM     18  N   UNL     1      17.297  21.355  43.728  0.00  0.00     -0.25 N 
ATOM     19  H   UNL     1      17.932  20.768  44.199  0.00  0.00      0.00 HD
BRANCH  18  20
ATOM     20  C   UNL     1      17.647  22.684  43.603  0.00  0.00     -0.43 A 
ATOM     21  C   UNL     1      18.393  23.125  42.497  0.00  0.00     -0.40 A 
ATOM     22  C   UNL     1      18.917  24.407  42.485  0.00  0.00     -0.39 A 
ATOM     23  C   UNL     1      18.702  25.247  43.570  0.00  0.00     -0.29 A 
ATOM     24  C   UNL     1      17.437  23.538  44.675  0.00  0.00     -0.32 A 
ATOM     25  C   UNL     1      17.957  24.805  44.662  0.00  0.00     -0.52 A 
ATOM     26  C   UNL     1      19.706  24.885  41.307  0.00  0.00     -0.34 C 
ATOM     27  C   UNL     1      17.711  25.711  45.830  0.00  0.00     -0.79 C 
ENDBRANCH  18  20
ENDBRANCH  15  16
ENDBRANCH   4  15
TORSDOF 7
ENDMDL
MODEL 7
REMARK VINA RESULT:    -7.534      2.149      2.908
REMARK INTER + INTRA:         -11.011
REMARK INTER:                 -10.232
REMARK INTRA:                  -0.778
REMARK UNBOUND:                -0.614
REMARK 991   NORMALIZED FREE ENERGY : -10.318 KCAL/MOL
REMARK 992 INTER-LIGAND FREE ENERGY : -10.318 KCAL/MOL
REMARK 993 INTRA-LIGAND FREE ENERGY :   0.078 KCAL/MOL
ROOT
ATOM      1  C   UNL     1      17.239  23.449  43.176  0.00  0.00     -0.40 A 
ATOM      2  C   UNL     1      16.785  22.560  42.205  0.00  0.00     -0.53 A 
ATOM      3  C   UNL     1      16.457  21.265  42.544  0.00  0.00     -0.40 A 
ATOM      4  C   UNL     1      16.574  20.831  43.848  0.00  0.00     -0.38 A 
ATOM      5  C   UNL     1      17.359  23.017  44.501  0.00  0.00     -0.33 A 
ATOM      6  C   UNL     1      17.022  21.698  44.832  0.00  0.00     -0.37 A 
ENDROOT
BRANCH   1   7
ATOM      7  O   UNL     1      17.598  24.830  42.751  0.00  0.00     -0.32 OA
BRANCH   7   8
ATOM      8  C   UNL     1      18.926  25.299  42.399  0.00  0.00     -0.37 C 
ATOM      9  C   UNL     1      19.415  26.240  43.500  0.00  0.00     -0.66 C 
ATOM     10  C   UNL     1      19.937  24.139  42.250  0.00  0.00     -0.60 C 
BRANCH   8  11
ATOM     11  C   UNL     1      18.835  26.086  41.123  0.00  0.00     -0.28 C 
ATOM     12  O   UNL     1      18.693  27.330  41.177  0.00  0.00     -0.28 OA
BRANCH  11  13
ATOM     13  O   UNL     1      18.932  25.469  40.031  0.00  0.00     -0.20 OA
ATOM     14  H   UNL     1      18.257  25.551  39.386  0.00  0.00      0.00 HD
ENDBRANCH  11  13
ENDBRANCH   8  11
ENDBRANCH   7   8
ENDBRANCH   1   7
BRANCH   4  15
ATOM     15  C   UNL     1      16.244  19.477  44.170  0.00  0.00     -0.46 C 
BRANCH  15  16
ATOM     16  C   UNL     1      17.191  18.439  43.535  0.00  0.00     -0.35 C 
ATOM     17  O   UNL     1      18.410  18.571  43.635  0.00  0.00     -0.40 OA
ATOM     18  N   UNL     1      16.649  17.603  42.659  0.00  0.00     -0.25 N 
ATOM     19  H   UNL     1      15.687  17.708  42.476  0.00  0.00      0.00 HD
BRANCH  18  20
ATOM     20  C   UNL     1      17.311  16.600  41.980  0.00  0.00     -0.43 A 
ATOM     21  C   UNL     1      18.025  16.885  40.805  0.00  0.00     -0.40 A 
ATOM     22  C   UNL     1      18.504  15.848  40.021  0.00  0.00     -0.39 A 
ATOM     23  C   UNL     1      18.274  14.533  40.405  0.00  0.00     -0.29 A 
ATOM     24  C   UNL     1      17.094  15.283  42.352  0.00  0.00     -0.32 A 
ATOM     25  C   UNL     1      17.568  14.259  41.576  0.00  0.00     -0.52 A 
ATOM     26  C   UNL     1      19.272  16.144  38.771  0.00  0.00     -0.34 C 
ATOM     27  C   UNL     1      17.327  12.842  42.001  0.00  0.00     -0.79 C 
ENDBRANCH  18  20
ENDBRANCH  15  16
ENDBRANCH   4  15
TORSDOF 7
ENDMDL
MODEL 8
REMARK VINA RESULT:    -7.492      2.283      2.951
REMARK INTER + INTRA:         -10.954
REMARK INTER:                 -10.173
REMARK INTRA:                  -0.781
REMARK UNBOUND:                -0.614
REMARK 991   NORMALIZED FREE ENERGY : -10.318 KCAL/MOL
REMARK 992 INTER-LIGAND FREE ENERGY : -10.318 KCAL/MOL
REMARK 993 INTRA-LIGAND FREE ENERGY :   0.078 KCAL/MOL
ROOT
ATOM      1  C   UNL     1      17.580  22.524  43.914  0.00  0.00     -0.40 A 
ATOM      2  C   UNL     1      17.456  21.802  42.729  0.00  0.00     -0.53 A 
ATOM      3  C   UNL     1      16.745  20.621  42.703  0.00  0.00     -0.40 A 
ATOM      4  C   UNL     1      16.147  20.138  43.848  0.00  0.00     -0.38 A 
ATOM      5  C   UNL     1      16.975  22.041  45.079  0.00  0.00     -0.33 A 
ATOM      6  C   UNL     1      16.255  20.839  45.038  0.00  0.00     -0.37 A 
ENDROOT
BRANCH   1   7
ATOM      7  O   UNL     1      18.375  23.782  43.889  0.00  0.00     -0.32 OA
BRANCH   7   8
ATOM      8  C   UNL     1      17.857  25.117  43.654  0.00  0.00     -0.37 C 
ATOM      9  C   UNL     1      18.181  25.517  42.215  0.00  0.00     -0.66 C 
ATOM     10  C   UNL     1      16.327  25.197  43.861  0.00  0.00     -0.60 C 
BRANCH   8  11
ATOM     11  C   UNL     1      18.563  26.074  44.571  0.00  0.00     -0.28 C 
ATOM     12  O   UNL     1      19.527  26.748  44.134  0.00  0.00     -0.28 OA
BRANCH  11  13
ATOM     13  O   UNL     1      18.147  26.190  45.752  0.00  0.00     -0.20 OA
ATOM     14  H   UNL     1      17.273  25.929  45.968  0.00  0.00      0.00 HD
ENDBRANCH  11  13
ENDBRANCH   8  11
ENDBRANCH   7   8
ENDBRANCH   1   7
BRANCH   4  15
ATOM     15  C   UNL     1      15.430  18.901  43.797  0.00  0.00     -0.46 C 
BRANCH  15  16
ATOM     16  C   UNL     1      16.329  17.671  43.569  0.00  0.00     -0.35 C 
ATOM     17  O   UNL     1      17.360  17.527  44.225  0.00  0.00     -0.40 OA
ATOM     18  N   UNL     1      16.099  16.968  42.467  0.00  0.00     -0.25 N 
ATOM     19  H   UNL     1      15.377  17.283  41.878  0.00  0.00      0.00 HD
BRANCH  18  20
ATOM     20  C   UNL     1      16.781  15.834  42.073  0.00  0.00     -0.43 A 
ATOM     21  C   UNL     1      17.679  15.880  40.994  0.00  0.00     -0.40 A 
ATOM     22  C   UNL     1      18.193  14.704  40.474  0.00  0.00     -0.39 A 
ATOM     23  C   UNL     1      17.816  13.486  41.026  0.00  0.00     -0.29 A 
ATOM     24  C   UNL     1      16.419  14.611  42.615  0.00  0.00     -0.32 A 
ATOM     25  C   UNL     1      16.928  13.449  42.100  0.00  0.00     -0.52 A 
ATOM     26  C   UNL     1      19.155  14.746  39.329  0.00  0.00     -0.34 C 
ATOM     27  C   UNL     1      16.527  12.139  42.707  0.00  0.00     -0.79 C 
ENDBRANCH  18  20
ENDBRANCH  15  16
ENDBRANCH   4  15
TORSDOF 7
ENDMDL
MODEL 9
REMARK VINA RESULT:    -7.486      2.621      8.589
REMARK INTER + INTRA:         -10.946
REMARK INTER:                 -10.322
REMARK INTRA:                  -0.623
REMARK UNBOUND:                -0.614
REMARK 991   NORMALIZED FREE ENERGY : -10.318 KCAL/MOL
REMARK 992 INTER-LIGAND FREE ENERGY : -10.318 KCAL/MOL
REMARK 993 INTRA-LIGAND FREE ENERGY :   0.078 KCAL/MOL
ROOT
ATOM      1  C   UNL     1      18.367  16.723  42.673  0.00  0.00     -0.40 A 
ATOM      2  C   UNL     1      17.460  16.554  43.716  0.00  0.00     -0.53 A 
ATOM      3  C   UNL     1      16.723  17.623  44.180  0.00  0.00     -0.40 A 
ATOM      4  C   UNL     1      16.876  18.874  43.620  0.00  0.00     -0.38 A 
ATOM      5  C   UNL     1      18.526  17.988  42.099  0.00  0.00     -0.33 A 
ATOM      6  C   UNL     1      17.771  19.067  42.580  0.00  0.00     -0.37 A 
ENDROOT
BRANCH   1   7
ATOM      7  O   UNL     1      19.149  15.538  42.225  0.00  0.00     -0.32 OA
BRANCH   7   8
ATOM      8  C   UNL     1      18.961  14.808  40.985  0.00  0.00     -0.37 C 
ATOM      9  C   UNL     1      18.935  13.313  41.303  0.00  0.00     -0.66 C 
ATOM     10  C   UNL     1      17.641  15.189  40.275  0.00  0.00     -0.60 C 
BRANCH   8  11
ATOM     11  C   UNL     1      20.137  15.071  40.089  0.00  0.00     -0.28 C 
ATOM     12  O   UNL     1      19.942  15.320  38.875  0.00  0.00     -0.28 OA
BRANCH  11  13
ATOM     13  O   UNL     1      21.289  15.060  40.593  0.00  0.00     -0.20 OA
ATOM     14  H   UNL     1      21.883  15.764  40.419  0.00  0.00      0.00 HD
ENDBRANCH  11  13
ENDBRANCH   8  11
ENDBRANCH   7   8
ENDBRANCH   1   7
BRANCH   4  15
ATOM     15  C   UNL     1      16.113  19.970  44.132  0.00  0.00     -0.46 C 
BRANCH  15  16
ATOM     16  C   UNL     1      16.867  21.314  44.115  0.00  0.00     -0.35 C 
ATOM     17  O   UNL     1      17.690  21.573  44.992  0.00  0.00     -0.40 OA
ATOM     18  N   UNL     1      16.382  22.253  43.313  0.00  0.00     -0.25 N 
ATOM     19  H   UNL     1      15.577  22.026  42.793  0.00  0.00      0.00 HD
BRANCH  18  20
ATOM     20  C   UNL     1      16.902  23.520  43.143  0.00  0.00     -0.43 A 
ATOM     21  C   UNL     1      16.078  24.652  43.252  0.00  0.00     -0.40 A 
ATOM     22  C   UNL     1      16.558  25.895  42.873  0.00  0.00     -0.39 A 
ATOM     23  C   UNL     1      17.854  26.011  42.387  0.00  0.00     -0.29 A 
ATOM     24  C   UNL     1      18.195  23.655  42.660  0.00  0.00     -0.32 A 
ATOM     25  C   UNL     1      18.668  24.884  42.286  0.00  0.00     -0.52 A 
ATOM     26  C   UNL     1      15.687  27.105  42.994  0.00  0.00     -0.34 C 
ATOM     27  C   UNL     1      20.071  25.006  41.773  0.00  0.00     -0.79 C 
ENDBRANCH  18  20
ENDBRANCH  15  16
ENDBRANCH   4  15
TORSDOF 7
ENDMDL
